LAMMPS data file via write_data, version 12 Dec 2018, timestep = 10000

1000 atoms
1 atom types
1000 bonds
1 bond types
1000 angles
1 angle types

-6.5488000000000000e+00 6.5488000000000000e+00 xlo xhi
-6.5488000000000000e+00 6.5488000000000000e+00 ylo yhi
-6.5488000000000000e+00 6.5488000000000000e+00 zlo zhi

Masses

1 1

Atoms # angle

646 1 1 -5.1749855964557945e-01 -2.9533840493513210e+00 -4.7621473213188654e+00 0 0 0
164 1 1 -2.7541829878126518e+00 -1.2083202174193519e+00 -4.6973435104516303e+00 0 0 0
647 1 1 -9.8843836132423357e-01 -2.2029712965067985e+00 -5.1032082116291679e+00 0 0 0
644 1 1 -8.9958468955542732e-03 -1.9712526283412002e+00 -4.9198215712026743e+00 0 0 0
165 1 1 -2.8471253266949916e+00 -2.4935416089189655e-01 -4.8897499011581740e+00 0 0 0
163 1 1 -1.9917008343705798e+00 -7.8026517979904786e-01 -4.9949193494567865e+00 0 0 0
167 1 1 -1.2673221012025822e+00 -2.5118699572857894e-01 -5.4919401957888532e+00 0 0 0
168 1 1 -7.7206045989996330e-01 -1.0118637320188963e+00 -5.3251609473390653e+00 0 0 0
169 1 1 -2.4701126874593249e-01 -1.8751416201129814e-01 -5.5934669446372123e+00 0 0 0
889 1 1 -1.0384636600323307e+00 -4.4120508391413527e+00 -3.2272389531726198e+00 0 0 0
453 1 1 -3.1401453416937555e+00 -3.3212675648876613e+00 -3.2364670253173196e+00 0 0 0
580 1 1 -2.0073480876952616e+00 -3.9526390906008793e+00 -3.4391984873895800e+00 0 0 0
649 1 1 -1.3836170292060972e+00 -3.3752738255273416e+00 -4.2857669793610960e+00 0 0 0
581 1 1 -2.1585348649323177e+00 -3.2840032683631510e+00 -2.8137782773708628e+00 0 0 0
650 1 1 -5.5721065733266018e-01 -3.6977301476422895e+00 -3.9514911519079563e+00 0 0 0
888 1 1 -3.3515190553937324e-01 -3.8940836724703609e+00 -2.9088437352060788e+00 0 0 0
455 1 1 -3.5900239633401845e+00 -2.4009629932995824e+00 -3.5844528697586178e+00 0 0 0
456 1 1 -2.9108847913369984e+00 -2.2041880904824067e+00 -4.2471999382111507e+00 0 0 0
652 1 1 -2.2398960263214240e+00 -2.9537276352096895e+00 -3.7842443177224756e+00 0 0 0
653 1 1 -2.5878178650024601e+00 -2.1978339994609706e+00 -3.2235613310615920e+00 0 0 0
648 1 1 -1.7453463529409201e+00 -2.6010937200322179e+00 -4.6620039562500901e+00 0 0 0
593 1 1 -1.5631688622974793e+00 -2.3315845047988759e+00 -3.3036798312211926e+00 0 0 0
651 1 1 -1.1771129262261795e+00 -3.3012670395683990e+00 -3.3076030240451750e+00 0 0 0
599 1 1 -8.8138219133047147e-01 -2.3026312400992555e+00 -4.0416818007475062e+00 0 0 0
178 1 1 -4.1368591902924754e+00 -1.6634831028026626e+00 -2.9543420454871527e+00 0 0 0
457 1 1 -3.0931480210744047e+00 -1.4484291202725261e+00 -3.7002006661825222e+00 0 0 0
598 1 1 -1.5081322496144072e+00 -1.6249954161570916e+00 -4.4770131617684950e+00 0 0 0
595 1 1 -2.0464414700306199e+00 -1.3690104590815675e+00 -3.6830993686520990e+00 0 0 0
594 1 1 -1.7753484544235985e+00 -1.5769189356443583e+00 -2.8412474257217188e+00 0 0 0
600 1 1 -9.2666326042202118e-01 -1.5247370410479142e+00 -3.5278097821912566e+00 0 0 0
601 1 1 -4.8971885567269702e-01 -1.3535898110625175e+00 -4.3017247656671982e+00 0 0 0
177 1 1 -4.0620242100429795e+00 -9.8751201000341571e-01 -3.6512302183992094e+00 0 0 0
334 1 1 -3.6028192100111647e+00 -2.3098537625233875e-01 -3.0521525143905581e+00 0 0 0
176 1 1 -3.2213101191613034e+00 -5.1731427564680055e-01 -3.9669842988221053e+00 0 0 0
458 1 1 -2.5620217559378013e+00 -5.9510535374913109e-01 -3.0823479806759035e+00 0 0 0
175 1 1 -2.2216560326786889e+00 -3.9335986030282383e-01 -4.0405040007057913e+00 0 0 0
597 1 1 -1.3165293395726658e+00 -7.6572898992992378e-01 -4.2182247833635422e+00 0 0 0
596 1 1 -1.5390533412686593e+00 -6.7412862874611879e-01 -3.2585777630922621e+00 0 0 0
642 1 1 -2.3139301878161805e-01 -6.0398136805417953e-02 -4.5640505403040272e+00 0 0 0
16 1 1 -5.7678766444845775e-01 -4.8054585567825348e-01 -3.6688638086266958e+00 0 0 0
454 1 1 -3.9141744010857811e+00 -2.8890600864671301e+00 -2.8267302959939404e+00 0 0 0
434 1 1 -2.3678604267681931e+00 -4.6891152788203971e+00 -1.0929856133882971e+00 0 0 0
433 1 1 -1.7666143821751152e+00 -4.9832840227933586e+00 -1.7924178623600824e+00 0 0 0
432 1 1 -1.5499375414856618e+00 -5.3650870462273526e+00 -9.5556701515584686e-01 0 0 0
430 1 1 -1.3428058362143194e+00 -4.3948193968234532e+00 -1.0046296632037965e+00 0 0 0
890 1 1 -7.1192797468994595e-01 -4.9878663805156345e+00 -2.5513126255544414e+00 0 0 0
891 1 1 -6.5810756672620563e-01 -5.2220072442055230e+00 -1.6350520891259031e+00 0 0 0
451 1 1 -3.7255115118139335e+00 -3.7295394051804345e+00 -1.9343342767090901e+00 0 0 0
578 1 1 -2.4043589165251262e+00 -3.8430455331522189e+00 -1.8524483184252620e+00 0 0 0
143 1 1 -3.0639426830972760e+00 -3.9669298544883675e+00 -1.0924812275957547e+00 0 0 0
579 1 1 -2.1029619380561324e+00 -4.3607724367958483e+00 -2.5965078164329567e+00 0 0 0
429 1 1 -1.2099101682346780e+00 -3.5426686835694454e+00 -1.2157867843661130e+00 0 0 0
893 1 1 -9.8485723246583023e-01 -4.2221972438799860e+00 -1.9980489153199832e+00 0 0 0
892 1 1 -2.8833572956517728e-01 -4.3966919308101184e+00 -1.2883109122460432e+00 0 0 0
894 1 1 -4.3332129024486937e-01 -3.4902491355425935e+00 -1.9078380848238290e+00 0 0 0
450 1 1 -4.3376408653319141e+00 -3.2171711109413459e+00 -1.3942665380908670e+00 0 0 0
915 1 1 -6.7885274219165237e-01 -3.7946296916881600e-01 -2.6889315921273651e+00 0 0 0
584 1 1 -3.8692254535499728e+00 -2.2908371608533380e+00 -1.7355087142139773e+00 0 0 0
452 1 1 -3.0701970967407517e+00 -3.1870196537679125e+00 -2.3247018991125930e+00 0 0 0
577 1 1 -3.2535474894745717e+00 -3.0605045619817770e+00 -1.3056633785750300e+00 0 0 0
583 1 1 -2.8265706891999289e+00 -2.2799526441688212e+00 -1.8020434953076538e+00 0 0 0
582 1 1 -2.1020486812748205e+00 -2.4544165676811334e+00 -2.3575582014777465e+00 0 0 0
590 1 1 -2.1031894767183625e+00 -2.9477249566900752e+00 -1.4593704804865404e+00 0 0 0
591 1 1 -1.4257562066391627e+00 -3.2541482981261671e+00 -2.1937209382377154e+00 0 0 0
428 1 1 -1.1044600378445686e+00 -2.6628197570646814e+00 -1.4082397662789259e+00 0 0 0
320 1 1 -4.8137848067707135e-02 -2.5268999253954054e+00 -1.6869692880077953e+00 0 0 0
592 1 1 -9.8893408679530859e-01 -2.5092449392793879e+00 -2.5824536550249255e+00 0 0 0
585 1 1 -4.7659990824398912e+00 -2.1902980627455042e+00 -1.4075923430714579e+00 0 0 0
559 1 1 -5.2959195900006630e+00 -1.2160616905663875e+00 -1.2878441212507918e+00 0 0 0
558 1 1 -4.6959355350242040e+00 -1.2936088119924025e+00 -2.0315180935107509e+00 0 0 0
655 1 1 -3.3928042812761112e+00 -1.3173785630843426e+00 -1.8293839490750892e+00 0 0 0
587 1 1 -3.9874631266080498e+00 -1.5137982801584182e+00 -9.6996613774810270e-01 0 0 0
179 1 1 -3.3176754579490586e+00 -2.0714175927550889e+00 -2.5864784604320463e+00 0 0 0
180 1 1 -2.3418738439050730e+00 -1.4089054785302468e+00 -2.1146125582843669e+00 0 0 0
654 1 1 -3.1853691746132307e+00 -1.2049732326613942e+00 -2.7247096485481395e+00 0 0 0
913 1 1 -1.3678107620624920e+00 -1.8716599893712003e+00 -1.7835658945084651e+00 0 0 0
608 1 1 -1.0793776115091513e+00 -1.3231024203495034e+00 -1.1796516920366353e+00 0 0 0
609 1 1 -1.9467388672589272e+00 -2.0371891842457286e+00 -1.0161592809420754e+00 0 0 0
321 1 1 -5.7970671373156514e-02 -2.0168748927654412e+00 -2.6500929951348215e+00 0 0 0
914 1 1 -8.5044045957198533e-01 -1.3789146128522460e+00 -2.5072566684270852e+00 0 0 0
607 1 1 -2.3764657028463773e-01 -1.5030560917169808e+00 -1.7056461432816075e+00 0 0 0
182 1 1 -4.6036467968372219e-01 -4.9225718171499416e-01 -1.3213647254568552e+00 0 0 0
557 1 1 -5.0677340463950715e+00 -3.8732878208272203e-01 -2.0124402046141050e+00 0 0 0
560 1 1 -5.4888400718229473e+00 -3.2404019035249643e-01 -1.0106823303579666e+00 0 0 0
936 1 1 -4.0008878873241764e+00 -4.6109543564051253e-01 -2.1321139054508369e+00 0 0 0
658 1 1 -4.4406382114689862e+00 -6.0844952893487880e-01 -1.1569433750433666e+00 0 0 0
657 1 1 -3.5280794677336220e+00 -5.4467506268185040e-01 -1.0627512749048784e+00 0 0 0
935 1 1 -3.0944430275143993e+00 -3.3979190204923199e-01 -2.0613514175305361e+00 0 0 0
656 1 1 -2.6984930554175826e+00 -9.3080902348593519e-01 -1.3198500769446415e+00 0 0 0
460 1 1 -1.8169580851067295e+00 -2.1780548602757044e-01 -1.3258955646514687e+00 0 0 0
459 1 1 -2.1286438205117482e+00 -3.1026808686220747e-01 -2.2750563190429833e+00 0 0 0
181 1 1 -1.3814854172540447e+00 -8.4848687160448744e-01 -1.9750422145469939e+00 0 0 0
588 1 1 -3.0400950769989477e+00 -1.8879909418070639e+00 -9.6116996808485056e-01 0 0 0
131 1 1 -8.3783518351318298e-01 -5.5431390961525393e+00 3.5434459886689901e-01 0 0 0
130 1 1 -1.9492742419444653e-02 -5.5802804281452918e+00 7.8297346107455479e-01 0 0 0
135 1 1 -2.6597274677884890e+00 -4.9993456624858501e+00 -1.3394080842282716e-01 0 0 0
136 1 1 -3.0341545131460110e+00 -4.7320200934502914e+00 6.6765822961813892e-01 0 0 0
132 1 1 -1.7403015741814492e+00 -5.4076597631922301e+00 2.5294757758698244e-01 0 0 0
134 1 1 -1.7820551240501765e+00 -4.7157498538304914e+00 -1.2645896513765689e-01 0 0 0
138 1 1 -2.1317678308446548e+00 -4.3887894075944427e+00 7.5083097659168219e-01 0 0 0
431 1 1 -8.1841941422227860e-01 -5.0106289006098130e+00 -5.7104339920861735e-01 0 0 0
139 1 1 -1.0339895683881577e+00 -4.5274573000475824e+00 5.5233493691701385e-01 0 0 0
612 1 1 -5.8373470803604152e-02 -4.8598689918072928e+00 3.4100532114718071e-02 0 0 0
144 1 1 -3.5984518282409521e+00 -4.3377820153732474e+00 -4.7156490259038158e-01 0 0 0
436 1 1 -3.3675744584463163e+00 -3.8208735199603256e+00 4.2790770813192391e-01 0 0 0
145 1 1 -3.8191436953304003e+00 -3.4483330733074218e+00 -4.4798645354775640e-01 0 0 0
440 1 1 -4.2085260283760197e+00 -3.6071921814037715e+00 9.1671545386810049e-01 0 0 0
435 1 1 -2.6715918232639728e+00 -4.0430036971436971e+00 -1.1668575447545375e-01 0 0 0
141 1 1 -1.6991997755381816e+00 -3.7516314771161303e+00 7.2102354506360211e-02 0 0 0
142 1 1 -2.1383044831417801e+00 -3.6834128574657079e+00 -7.7819201347864808e-01 0 0 0
611 1 1 -6.3747451777447317e-01 -3.9520812855379024e+00 -3.5397530348194256e-01 0 0 0
902 1 1 -8.9017394328299360e-01 -3.4922667226061441e+00 5.3886187795724294e-01 0 0 0
448 1 1 -4.8574930006324761e+00 -2.5558285890394012e+00 3.0349188452268727e-01 0 0 0
449 1 1 -4.7575003571757879e+00 -2.9135251482539486e+00 -5.7138237941496128e-01 0 0 0
146 1 1 -3.7498228043907265e+00 -2.8186208757950233e+00 2.8682410559100785e-01 0 0 0
576 1 1 -3.8150144756021356e+00 -2.4328242219038674e+00 -6.4209907007769873e-01 0 0 0
437 1 1 -2.7311216607322133e+00 -3.1825661921928075e+00 5.6193902601550783e-01 0 0 0
589 1 1 -2.6304600695373663e+00 -2.7176719078557130e+00 -6.6312320474689379e-01 0 0 0
903 1 1 -1.6561046244500097e+00 -3.0425192744674368e+00 8.3037318769549873e-01 0 0 0
610 1 1 -1.2718909300707057e+00 -2.9433983128965955e+00 -3.9415162976734186e-01 0 0 0
904 1 1 -2.0789316343290207e+00 -2.5051756603147077e+00 1.7878319915684254e-01 0 0 0
103 1 1 -1.8060292265189848e-01 -3.0482474770847174e+00 7.4409801615470977e-02 0 0 0
105 1 1 -7.2834484936864941e-01 -2.4470908560885172e+00 8.6315229386357828e-01 0 0 0
426 1 1 -3.1604733986299127e-01 -3.0888200743842531e+00 -9.1354721949217044e-01 0 0 0
586 1 1 -4.7794752033148162e+00 -1.8175967400132860e+00 -5.3128614695589016e-01 0 0 0
358 1 1 -4.9323786400837566e+00 -1.3714722952313150e+00 4.7485253595547927e-01 0 0 0
575 1 1 -3.9084670233281469e+00 -1.5508464300010867e+00 8.1046941438225772e-02 0 0 0
147 1 1 -3.0605549253985878e+00 -2.0884123973630002e+00 8.9401767188128881e-02 0 0 0
901 1 1 -5.2363799830605157e-02 -4.0484199775662271e+00 5.0122768916691385e-01 0 0 0
148 1 1 -2.9977168502298777e+00 -1.1761494325238384e+00 -3.1634686963518888e-01 0 0 0
905 1 1 -2.1058742325154456e+00 -1.5470409764136595e+00 1.9921746939332244e-01 0 0 0
912 1 1 -1.3914969035139868e+00 -1.9602956249684538e+00 -4.0563500116259171e-01 0 0 0
911 1 1 -1.5949864073964348e+00 -2.0468761232766841e+00 9.0466384306584802e-01 0 0 0
405 1 1 -1.1211881511423372e+00 -1.4806534291050197e+00 6.0049942705869930e-01 0 0 0
404 1 1 -1.7146950191457319e-01 -1.4171528650727094e+00 4.6780622949186468e-01 0 0 0
104 1 1 -5.5469492541251164e-01 -2.2202857027838157e+00 1.8092772926881790e-02 0 0 0
422 1 1 -2.3256154042563992e-01 -1.1872513899134833e+00 -5.9263413094258710e-01 0 0 0
357 1 1 -5.4843013794122184e+00 -1.0215997856127166e+00 -1.8854178756117693e-01 0 0 0
356 1 1 -5.5983196380297677e+00 -6.0403066161975438e-01 6.5345737131152604e-01 0 0 0
359 1 1 -4.7912870095940443e+00 -1.2528958344637842e-01 4.9809542688235459e-01 0 0 0
659 1 1 -4.4488531556013298e+00 -7.1100880392959531e-01 -2.4539728091969551e-01 0 0 0
660 1 1 -4.1654346686899135e+00 -8.3467736792565239e-01 7.9298572819543456e-01 0 0 0
574 1 1 -3.5668716738442243e+00 -3.9063860157428731e-01 1.2961283357190856e-01 0 0 0
407 1 1 -2.9431992499634227e+00 -1.0216891162612425e+00 7.0012536443218643e-01 0 0 0
408 1 1 -2.2392942320473388e+00 -5.7982158646182835e-01 1.1380304136402203e-01 0 0 0
149 1 1 -2.7011659936070367e+00 -2.9445569906541436e-01 -5.4186566239490186e-01 0 0 0
421 1 1 -1.2234456838924124e+00 -2.5752166152405559e-01 -4.5716322012869254e-01 0 0 0
906 1 1 -1.4000172583373205e+00 -5.7588865378137821e-01 5.5382621580054070e-01 0 0 0
409 1 1 -1.9058084214979543e+00 -1.0233130946533504e+00 -6.3590554689905343e-01 0 0 0
410 1 1 -1.0468778009678112e+00 -1.0741429851239701e+00 -2.1170871900299434e-01 0 0 0
411 1 1 -3.8952344998038713e-01 -5.3210536328653757e-01 2.1093512036325768e-01 0 0 0
427 1 1 -5.2303082106537535e-01 -2.1571221255003672e+00 -9.3484606611517240e-01 0 0 0
137 1 1 -2.5806451213926431e+00 -4.7484383277177296e+00 1.4968235501850795e+00 0 0 0
133 1 1 -1.6371531823012133e+00 -5.1787384499427427e+00 1.0990629420420235e+00 0 0 0
128 1 1 -1.2186043033237957e+00 -4.8953653731731501e+00 2.0625918364660212e+00 0 0 0
129 1 1 -6.0927763322801076e-01 -5.3272265143308344e+00 1.4726991569145136e+00 0 0 0
119 1 1 -2.3781482480708122e-01 -4.5887857298249335e+00 2.4913293259375551e+00 0 0 0
439 1 1 -3.5016949901670946e+00 -4.1190572514274502e+00 1.4401694771572509e+00 0 0 0
112 1 1 -3.3036610048856740e+00 -3.7127212634094304e+00 2.4436887401641365e+00 0 0 0
438 1 1 -2.6321641339137534e+00 -3.6666065041701477e+00 1.3825956404589259e+00 0 0 0
127 1 1 -1.9189148062784842e+00 -4.2268061753483845e+00 2.1587784810254402e+00 0 0 0
140 1 1 -1.4542478708299866e+00 -4.0176109080718598e+00 1.2084975206733959e+00 0 0 0
120 1 1 -9.5883777687904892e-01 -3.8812697254275093e+00 2.3888720888525672e+00 0 0 0
100 1 1 -4.8130125314902883e-01 -4.2289221571600830e+00 1.4740027985838626e+00 0 0 0
441 1 1 -4.4180555469725826e+00 -3.0767009506398995e+00 1.6404968334816172e+00 0 0 0
446 1 1 -3.8967631908855589e+00 -2.2482811786678778e+00 1.9573148955147217e+00 0 0 0
442 1 1 -3.4852487625031636e+00 -3.0796968432777563e+00 1.5417858485952565e+00 0 0 0
447 1 1 -4.3412579540309268e+00 -2.2085156876078313e+00 1.0279277883521045e+00 0 0 0
111 1 1 -2.7087573701617034e+00 -2.9995515519294860e+00 2.3046369979125738e+00 0 0 0
443 1 1 -3.2587834583568891e+00 -2.3280095601876085e+00 1.0576597373847592e+00 0 0 0
444 1 1 -2.4375698202983487e+00 -2.5494182662850338e+00 1.3801686034752874e+00 0 0 0
126 1 1 -1.7343334012761382e+00 -3.2842460530005755e+00 1.8907858086347493e+00 0 0 0
110 1 1 -1.9578342729735907e+00 -2.3015723358490132e+00 2.2611342645738608e+00 0 0 0
125 1 1 -9.7499605466191241e-01 -2.8791689107764364e+00 2.5188194020370718e+00 0 0 0
101 1 1 -7.4575785983426657e-01 -3.2709389379919713e+00 1.5504964807158150e+00 0 0 0
107 1 1 -5.7846688548524428e-01 -7.5939589870090340e-01 1.2732471412755533e+00 0 0 0
102 1 1 -7.2246785742973649e-02 -3.1615043422172868e+00 9.6033301083041411e-01 0 0 0
354 1 1 -4.6076911535037359e+00 -1.4736778726861379e+00 1.7775617829991854e+00 0 0 0
666 1 1 -4.6889149256787617e+00 -1.5874335646239037e+00 2.7588211016699846e+00 0 0 0
353 1 1 -3.7642334153634089e+00 -1.3702962707046042e+00 2.4199654006661144e+00 0 0 0
661 1 1 -3.6765658407558752e+00 -1.3918082654714614e+00 1.3321699303277461e+00 0 0 0
445 1 1 -2.9610203622713063e+00 -1.9821945382350759e+00 1.9877007864453680e+00 0 0 0
406 1 1 -2.3143067955714498e+00 -1.4761052907279866e+00 1.1740044436579595e+00 0 0 0
817 1 1 -1.1082481706016842e+00 -1.5529008751359183e+00 2.5176881136888025e+00 0 0 0
109 1 1 -2.0567339471258252e+00 -1.3672045726664370e+00 2.2059067092019249e+00 0 0 0
910 1 1 -1.4543134343033608e+00 -1.1571481836824378e+00 1.4472754605912548e+00 0 0 0
818 1 1 -1.0201579797978200e+00 -2.1987161866552150e+00 1.8264128943349867e+00 0 0 0
806 1 1 -2.1352580822634215e-01 -2.1072201942484141e+00 2.5436194096457383e+00 0 0 0
106 1 1 -4.4197343422351171e-01 -1.6561008220746150e+00 1.3425312314900431e+00 0 0 0
807 1 1 -1.1129296496718633e-01 -1.2257652741365690e+00 2.1732293222573675e+00 0 0 0
366 1 1 -5.2468386616226503e+00 -1.6134877679052881e-01 2.0592083912037400e+00 0 0 0
355 1 1 -5.3148406377793025e+00 -1.0188591390702781e+00 1.4291246840610394e+00 0 0 0
665 1 1 -4.5791166282923150e+00 -6.6206025198499174e-01 2.7433491291051362e+00 0 0 0
662 1 1 -4.0040255635271214e+00 -5.8012446688431518e-01 1.7834114782212189e+00 0 0 0
663 1 1 -3.5310430803616120e+00 -3.7284664648619803e-01 2.5693133802564208e+00 0 0 0
547 1 1 -3.1400920083412140e+00 -1.3141704060436377e-01 1.4191818838490955e+00 0 0 0
548 1 1 -2.9194464151882364e+00 -8.9682278798308712e-01 1.8617447685605271e+00 0 0 0
108 1 1 -1.1030756638609007e+00 -6.5475118237806074e-01 2.1680355488978855e+00 0 0 0
549 1 1 -2.1243489301185079e+00 -4.1209798916733958e-01 1.9171432220415185e+00 0 0 0
551 1 1 -2.2647452569457980e+00 -3.4922010045788843e-01 9.8515490856364518e-01 0 0 0
980 1 1 -1.8600086027293872e-01 -1.7668395638336640e-01 2.4426431021347654e+00 0 0 0
116 1 1 -1.1765004955862615e+00 -4.5263921438406154e+00 3.1027418783881724e+00 0 0 0
117 1 1 -3.7344426650002455e-01 -4.3882600092740027e+00 3.5461815213918473e+00 0 0 0
113 1 1 -2.5761601071020759e+00 -3.9893850455030715e+00 2.9790136634985922e+00 0 0 0
114 1 1 -1.8552314500086717e+00 -3.9097135481417244e+00 3.6222125578867077e+00 0 0 0
781 1 1 -9.6201040207521926e-01 -3.3621279886315261e+00 4.4514497401986510e+00 0 0 0
780 1 1 -7.6062052406517686e-02 -3.5579026660943809e+00 4.2007327146817319e+00 0 0 0
115 1 1 -9.9265094541327037e-01 -3.5890273742024479e+00 3.4144153870006750e+00 0 0 0
55 1 1 -3.3476528400556065e+00 -2.8951443810844522e+00 3.2201737195300368e+00 0 0 0
54 1 1 -2.6739078201416948e+00 -3.2193978554599529e+00 3.7718645293395778e+00 0 0 0
53 1 1 -2.5262050530460942e+00 -2.5006334966189745e+00 4.4081137615021708e+00 0 0 0
122 1 1 -2.3149047194380388e+00 -2.4876206651928379e+00 3.1559285588695278e+00 0 0 0
121 1 1 -1.8220997393886009e+00 -3.2368428786565806e+00 2.8748625692786329e+00 0 0 0
58 1 1 -1.6501859223786648e+00 -2.8844043787913187e+00 3.9103526457616593e+00 0 0 0
124 1 1 -1.2473678047349830e+00 -2.2825878403417614e+00 3.1704879608795431e+00 0 0 0
59 1 1 -7.6917508237360455e-01 -2.4067294535344335e+00 4.1432153401551801e+00 0 0 0
977 1 1 -2.7514385633693128e-01 -2.7508612239506114e+00 3.3454534572316286e+00 0 0 0
667 1 1 -4.0564710396215204e+00 -2.1246276497362180e+00 3.1622118941157891e+00 0 0 0
668 1 1 -4.0685684436158613e+00 -1.2779410851040329e+00 3.5983790172516286e+00 0 0 0
56 1 1 -3.0877470901192519e+00 -2.0474974999793050e+00 3.6825307356551997e+00 0 0 0
352 1 1 -2.9500220833325059e+00 -1.3011320709286784e+00 2.8552636585583060e+00 0 0 0
671 1 1 -2.5735023530493581e+00 -1.1496400077665618e+00 3.8615899341993623e+00 0 0 0
57 1 1 -1.8856982752840938e+00 -2.0006259402740780e+00 4.0149289666586059e+00 0 0 0
123 1 1 -1.9490008100682108e+00 -1.6287953399544144e+00 3.1408744183174386e+00 0 0 0
978 1 1 -3.2153270484925650e-01 -1.7792338420039859e+00 3.4932310552965466e+00 0 0 0
669 1 1 -4.1677243956215051e+00 -3.3310401264934492e-01 3.6939220800114518e+00 0 0 0
670 1 1 -3.2738540084333083e+00 -5.7578498092282615e-01 3.5781596797333832e+00 0 0 0
374 1 1 -3.1929249602473151e+00 -6.9288760420270123e-01 4.5886845814153912e+00 0 0 0
672 1 1 -2.2841191518514470e+00 -2.9223839603889251e-01 3.9224654163978676e+00 0 0 0
351 1 1 -2.3187139264254335e+00 -5.5711063901445257e-01 2.9188522971663104e+00 0 0 0
815 1 1 -1.2296463934830246e+00 -1.2960193254160790e-01 4.0177172472451028e+00 0 0 0
813 1 1 -1.5377471031439296e+00 -1.0651674411780407e+00 4.2942903685974239e+00 0 0 0
816 1 1 -1.3583894797317493e+00 -7.3697783105698256e-01 3.2542968922967570e+00 0 0 0
811 1 1 -3.6765879540216101e-01 -1.0986492584357822e-01 3.4901976021739882e+00 0 0 0
812 1 1 -6.3529791143159231e-01 -9.5931760815045941e-01 4.0387660299519048e+00 0 0 0
979 1 1 -4.1721475588799761e-01 -9.8948204826392627e-01 2.9805098877545744e+00 0 0 0
782 1 1 -1.3895346780125886e+00 -2.5131940290084787e+00 4.8645071514217202e+00 0 0 0
60 1 1 -2.4667248769696240e-01 -2.7088754061344367e+00 4.8946546027012587e+00 0 0 0
52 1 1 -2.3950721128075418e+00 -1.5773994539308549e+00 4.8239691285601820e+00 0 0 0
783 1 1 -1.3523372379015219e+00 -1.6291173048876026e+00 5.1944226000762432e+00 0 0 0
784 1 1 -5.0131558017925393e-01 -1.6479499609293000e+00 4.8631707348199171e+00 0 0 0
375 1 1 -2.6468062475812308e+00 -1.0846828673368883e-02 4.9109202765128916e+00 0 0 0
51 1 1 -1.9965441797526888e+00 -7.5463806600023497e-01 5.1949419044134881e+00 0 0 0
814 1 1 -9.8512546113923471e-01 -5.2750155269700494e-01 4.9102265166168317e+00 0 0 0
160 1 1 -2.8526685865437260e+00 9.6347875192831534e-01 -4.8218435355621114e+00 0 0 0
166 1 1 -2.0628973905244461e+00 1.8825193064494708e-01 -5.2848979894329462e+00 0 0 0
173 1 1 -9.2376834402415153e-01 7.6840016874304329e-01 -5.3504094138466671e+00 0 0 0
161 1 1 -2.0043414622819715e+00 1.2156743118046678e+00 -5.0782911075137225e+00 0 0 0
172 1 1 -3.5761067927714912e-01 1.5100813731598774e+00 -5.4236580061577317e+00 0 0 0
471 1 1 -1.1160008339542857e+00 1.8120639487340837e+00 -4.8447693433898138e+00 0 0 0
470 1 1 -1.8735423951812027e+00 2.3136063446570718e+00 -4.8124681011644750e+00 0 0 0
939 1 1 -4.7812570464267559e+00 8.6352083852851425e-01 -2.9340172917105778e+00 0 0 0
335 1 1 -3.8818429349363108e+00 5.7871062457909284e-01 -3.4262003314990208e+00 0 0 0
159 1 1 -3.3765720786522433e+00 4.7332330044623255e-01 -4.2752429602335971e+00 0 0 0
158 1 1 -2.7627264349491747e+00 3.9426239048127060e-01 -3.5205686512505112e+00 0 0 0
162 1 1 -2.1669653902042612e+00 3.8755175147930615e-01 -4.4173127997869859e+00 0 0 0
174 1 1 -1.2518625581539016e+00 2.2545904711910028e-01 -4.6154415959215287e+00 0 0 0
17 1 1 -1.2303938905872722e+00 1.9978994878219675e-01 -3.6730490600991494e+00 0 0 0
18 1 1 -1.1503925019119106e+00 1.0830795214292976e+00 -3.4288943116524147e+00 0 0 0
916 1 1 -2.2814831405198929e-01 5.2845786649058579e-01 -3.5341634121358867e+00 0 0 0
155 1 1 -3.6805275857583633e+00 1.4915511841559412e+00 -3.9509403576311550e+00 0 0 0
336 1 1 -3.1195240766325600e+00 1.4537051921623012e+00 -3.1034858688678888e+00 0 0 0
157 1 1 -2.6365895140587279e+00 1.2265262337353533e+00 -3.9132655077956038e+00 0 0 0
156 1 1 -2.9014220375790232e+00 1.9639264618007677e+00 -4.3846094015355970e+00 0 0 0
329 1 1 -2.2923940719104752e+00 2.1416953982226050e+00 -3.0226285423878059e+00 0 0 0
330 1 1 -2.1093517912106008e+00 1.1874248383556443e+00 -3.0493082376405454e+00 0 0 0
19 1 1 -1.6706111697718085e+00 1.1991712358565245e+00 -4.1366532372441265e+00 0 0 0
20 1 1 -1.8755167190118922e+00 2.0451820052791461e+00 -3.8851646488510401e+00 0 0 0
466 1 1 -1.2208784728966910e+00 2.0766413456760526e+00 -2.8695120960851339e+00 0 0 0
472 1 1 -7.0893883211721476e-01 1.1235076433637570e+00 -4.3368369402488396e+00 0 0 0
473 1 1 -7.8197099904714096e-01 1.9982292672381476e+00 -3.8391382912000407e+00 0 0 0
917 1 1 -2.6653988541076701e-01 1.4060435597816512e+00 -3.0894883515294946e+00 0 0 0
23 1 1 -3.9774134227994420e+00 2.2507635186613317e+00 -3.2761947272790040e+00 0 0 0
25 1 1 -3.6825416542642140e+00 3.1665306485280906e+00 -2.8202794771665385e+00 0 0 0
22 1 1 -3.1508222713441314e+00 2.5503782087219387e+00 -3.5507260349105771e+00 0 0 0
21 1 1 -2.3864052863233476e+00 2.8651034026928008e+00 -3.9956518856915788e+00 0 0 0
467 1 1 -1.5409696395727646e+00 2.8589207718938585e+00 -3.2871572346189466e+00 0 0 0
469 1 1 -1.2998819277471458e+00 2.8933098835028050e+00 -4.3493213138643494e+00 0 0 0
500 1 1 -1.6593285540778407e-01 2.7494209896244226e+00 -4.2116154987425727e+00 0 0 0
474 1 1 -4.9244858909134631e-01 2.7353761894443438e+00 -3.2664518620773171e+00 0 0 0
26 1 1 -2.9163803057308484e+00 3.7887317659500135e+00 -3.0493915714027495e+00 0 0 0
468 1 1 -1.6190015504257185e+00 3.6467052056061946e+00 -3.8039849803926837e+00 0 0 0
502 1 1 -7.2125069744279080e-01 4.3676231774020486e+00 -3.4847151224752775e+00 0 0 0
501 1 1 -5.7882648702914496e-01 3.6525200398110713e+00 -4.1350788521129553e+00 0 0 0
927 1 1 -9.2796442606322760e-01 3.6376345173497766e+00 -2.8369949911046395e+00 0 0 0
940 1 1 -5.2219854995472899e+00 6.6352740761032347e-01 -2.1005467562344684e+00 0 0 0
556 1 1 -4.7204271957621335e+00 3.4377805730432565e-01 -1.3099870475062225e+00 0 0 0
937 1 1 -4.2747780496483738e+00 4.2175414930676475e-01 -2.3183153208186833e+00 0 0 0
152 1 1 -3.6528411632785791e+00 4.0392544946289433e-01 -1.5395913483205759e+00 0 0 0
333 1 1 -3.2699038651188772e+00 4.8872811955732176e-01 -2.5896013374794791e+00 0 0 0
934 1 1 -2.6154027235881250e+00 3.0026677213908071e-01 -1.5293726609381610e+00 0 0 0
920 1 1 -1.8392412205404769e+00 7.7226014936810039e-01 -1.8311414694711625e+00 0 0 0
464 1 1 -1.5205963774609843e+00 3.5842124188701413e-01 -2.7240869576350839e+00 0 0 0
462 1 1 -1.9954316175954687e-01 3.3226504202602225e-01 -1.8974659552657136e+00 0 0 0
461 1 1 -1.0838743567991775e+00 1.1571977552608961e-01 -1.7731570096922373e+00 0 0 0
463 1 1 -6.1362743544191289e-01 5.4101597892025444e-01 -2.6583337256245962e+00 0 0 0
941 1 1 -5.1816947520527883e+00 1.3369032984025042e+00 -1.4395397559143466e+00 0 0 0
938 1 1 -4.7291904234910191e+00 1.5512740753787324e+00 -2.3072152495004508e+00 0 0 0
153 1 1 -3.7779966356686807e+00 1.2660839585781454e+00 -1.8597647717502701e+00 0 0 0
942 1 1 -4.3660914513364082e+00 1.8124657105031210e+00 -1.1070999022601824e+00 0 0 0
154 1 1 -3.9141179487722635e+00 1.3687125783652243e+00 -2.7941128359895151e+00 0 0 0
338 1 1 -3.4481231184991508e+00 2.1856123610782032e+00 -1.4799628066195809e+00 0 0 0
332 1 1 -2.7795044253559547e+00 1.0984040051907611e+00 -2.1920618554479052e+00 0 0 0
337 1 1 -3.2027661197250161e+00 2.0851022531608860e+00 -2.3873955152988424e+00 0 0 0
921 1 1 -2.8425157746910528e+00 1.3250002601244639e+00 -1.2337266884492286e+00 0 0 0
922 1 1 -2.3701531096389448e+00 2.1153503087916676e+00 -1.4431682293681192e+00 0 0 0
465 1 1 -1.1999513782174112e+00 1.2582512675871249e+00 -2.4916713127759897e+00 0 0 0
331 1 1 -2.1190628186331457e+00 1.6775806279251020e+00 -2.2737775256313704e+00 0 0 0
933 1 1 -1.9033851312925794e+00 1.2253232551234696e+00 -1.2121371639519880e+00 0 0 0
932 1 1 -1.3715123729931564e+00 2.0018971602599995e+00 -1.7672394364741857e+00 0 0 0
919 1 1 -8.5956199697208213e-01 1.1165732001391224e+00 -1.5931735135187872e+00 0 0 0
918 1 1 -1.6643786804814362e-01 1.3754612672500006e+00 -2.1564559342907814e+00 0 0 0
931 1 1 -5.2639651135613430e-01 2.1807813549251276e+00 -1.5284506445169628e+00 0 0 0
339 1 1 -3.7755862443689545e+00 2.9952579025019319e+00 -1.7289565109439231e+00 0 0 0
24 1 1 -4.3237046316952439e+00 2.5344536102525970e+00 -2.4707205183751260e+00 0 0 0
923 1 1 -2.7020406181079828e+00 2.8944741498235440e+00 -1.7157457886891132e+00 0 0 0
924 1 1 -2.6571656459173481e+00 2.9822415014051016e+00 -2.6511360284893679e+00 0 0 0
683 1 1 -1.8202059739848178e+00 3.1424654896100312e+00 -1.0017501748466977e+00 0 0 0
328 1 1 -1.8370222244270054e+00 2.7327496839135206e+00 -2.2425796725801690e+00 0 0 0
326 1 1 -8.8577831106375390e-02 3.2196066739971836e+00 -2.3862798405389123e+00 0 0 0
475 1 1 -1.2476588790671479e-01 2.3118890335682192e+00 -2.5181172269778420e+00 0 0 0
928 1 1 -8.7413309513954951e-01 2.8825878605204815e+00 -2.2379860361197412e+00 0 0 0
29 1 1 -3.8820185643881153e+00 3.9062816667903770e+00 -1.3442803930673228e+00 0 0 0
340 1 1 -3.1963214306881520e+00 3.6848323950608592e+00 -2.0595007242899888e+00 0 0 0
341 1 1 -2.2708247515265025e+00 3.8564282906807650e+00 -1.5919168077483243e+00 0 0 0
30 1 1 -3.1374308886285922e+00 3.5589653612295589e+00 -9.7581842606125457e-01 0 0 0
684 1 1 -1.3720219468863559e+00 4.0398330215507317e+00 -9.7956620214597834e-01 0 0 0
925 1 1 -1.9622466854041281e+00 3.6510461734171908e+00 -2.7359249430483588e+00 0 0 0
327 1 1 -1.2911430455654915e+00 3.5131822865809039e+00 -1.8805177710368066e+00 0 0 0
929 1 1 -3.7025206660879928e-01 3.8240175407097849e+00 -1.7067324389006269e+00 0 0 0
28 1 1 -3.0393898018309100e+00 4.5029958762207150e+00 -1.5518776762823447e+00 0 0 0
27 1 1 -2.5314379918072567e+00 4.4484221121518770e+00 -2.3847127002507369e+00 0 0 0
926 1 1 -1.4420762461071870e+00 4.4075852705577132e+00 -2.5174872138976978e+00 0 0 0
685 1 1 -1.6984982266037159e+00 4.8656973215911901e+00 -1.3920773002176432e+00 0 0 0
506 1 1 -6.1377864489348333e-01 4.8003363428319226e+00 -1.2265401134310518e+00 0 0 0
503 1 1 -3.8176619077892399e-01 4.5964091027657537e+00 -2.6093572540005643e+00 0 0 0
561 1 1 -5.5846789850742473e+00 9.3277632659723470e-02 -1.8071592598885530e-01 0 0 0
562 1 1 -5.2437798490010268e+00 8.9967442442574586e-01 -4.8071386951863648e-01 0 0 0
360 1 1 -4.6480703333709776e+00 7.9025937431917048e-01 5.8677950008350510e-01 0 0 0
555 1 1 -4.1921106056780149e+00 8.2813954539248780e-01 -7.4981221551144739e-01 0 0 0
554 1 1 -3.7366311191168293e+00 6.7375583863026989e-01 3.3517053571719961e-02 0 0 0
552 1 1 -2.7992865390496369e+00 2.7310725626951454e-01 4.5585402243077977e-01 0 0 0
151 1 1 -3.1903986285052093e+00 4.6971657962589847e-01 -7.5887690548044995e-01 0 0 0
553 1 1 -2.8710036080670949e+00 1.0710029387029900e+00 -2.7677657391108626e-02 0 0 0
150 1 1 -2.1811391388479633e+00 4.5716195993570119e-01 -5.2600813972470328e-01 0 0 0
907 1 1 -1.1052412810313443e+00 2.7202109870438357e-01 2.8728288939647267e-01 0 0 0
420 1 1 -1.8088149360046581e+00 4.8371964039680199e-01 4.9993618346260860e-01 0 0 0